 VARIABLES="X","Y","E"
 ZONE F=POINT, I=100, J=100
 VARIABLES="X","Y","E"
 ZONE F=POINT, I=100, J=100
 VARIABLES="X","Y","E"
 ZONE F=POINT, I=100, J=100
 VARIABLES="X","Y","E"
 ZONE F=POINT, I=100, J=100
