 VARIABLES="X","Y","bx"
 ZONE F=POINT, I=                    64 J=                    64
 tn=   1.00000000000000     
 nx=                    64 ny=                    64
 L1-rh=  3.761319430984075E-005   order=   14.6984016416221     
 Linf-rh=  4.689666868910175E-004   order=   11.0582269351970     
 L2-rh=  7.521294943867950E-005   order=   13.6986594018607     
 VARIABLES="X","Y","bx"
 ZONE F=POINT, I=                    64 J=                    64
 tn=   2.00000000000000     
 nx=                    64 ny=                    64
 L1-rh=  5.352054230337549E-005   order= -0.508853901520945     
 Linf-rh=  5.868855606316614E-004   order= -0.323593769025450     
 L2-rh=  1.010540845086994E-004   order= -0.426074657550506     
 VARIABLES="X","Y","bx"
 ZONE F=POINT, I=                    64 J=                    64
 tn=   3.00000000000000     
 nx=                    64 ny=                    64
 L1-rh=  5.770405603395905E-005   order= -0.108579995530236     
 Linf-rh=  6.284338503555753E-004   order= -9.868167957893766E-002
 L2-rh=  1.106576232561253E-004   order= -0.130975207268604     
 VARIABLES="X","Y","bx"
 ZONE F=POINT, I=                    64 J=                    64
 tn=   4.00000000000000     
 nx=                    64 ny=                    64
 L1-rh=  5.329004659798966E-005   order=  0.114806635243067     
 Linf-rh=  6.498637918687378E-004   order= -4.837647535740823E-002
 L2-rh=  1.082900478503551E-004   order=  3.120218106374938E-002
 VARIABLES="X","Y","bx"
 ZONE F=POINT, I=                    64 J=                    64
 tn=   5.00000000000000     
 nx=                    64 ny=                    64
 L1-rh=  3.939296158953780E-005   order=  0.435928210803001     
 Linf-rh=  5.996811572556715E-004   order=  0.115941726110612     
 L2-rh=  8.234753263979799E-005   order=  0.395103332872285     
 VARIABLES="X","Y","bx"
 ZONE F=POINT, I=                    64 J=                    64
 tn=   6.00000000000000     
 nx=                    64 ny=                    64
 L1-rh=  2.772563930282233E-005   order=  0.506717157125224     
 Linf-rh=  3.552989124956177E-004   order=  0.755162369350903     
 L2-rh=  5.679112770197808E-005   order=  0.536059863802414     
 VARIABLES="X","Y","bx"
 ZONE F=POINT, I=                    64 J=                    64
 tn=   7.00000000000000     
 nx=                    64 ny=                    64
 L1-rh=  1.888640005854084E-005   order=  0.553872991227556     
 Linf-rh=  2.140545931119435E-004   order=  0.731054480117544     
 L2-rh=  3.682392520584797E-005   order=  0.625022142279440     
 VARIABLES="X","Y","bx"
 ZONE F=POINT, I=                    64 J=                    64
 tn=   8.00000000000000     
 nx=                    64 ny=                    64
 L1-rh=  1.313997105229069E-005   order=  0.523385638099213     
 Linf-rh=  1.240095306993320E-004   order=  0.787527790153020     
 L2-rh=  2.411249624887244E-005   order=  0.610862403539771     
 VARIABLES="X","Y","bx"
 ZONE F=POINT, I=                    64 J=                    64
 tn=   9.00000000000000     
 nx=                    64 ny=                    64
 L1-rh=  9.506221889014063E-006   order=  0.467018115626048     
 Linf-rh=  7.792837997630295E-005   order=  0.670230272459403     
 L2-rh=  1.658377181014830E-005   order=  0.540008843376957     
 VARIABLES="X","Y","bx"
 ZONE F=POINT, I=                    64 J=                    64
 tn=   10.0000000000000     
 nx=                    64 ny=                    64
 L1-rh=  7.182530559843384E-006   order=  0.404379850557262     
 Linf-rh=  5.385029330086474E-005   order=  0.533194622440225     
 L2-rh=  1.211648308158876E-005   order=  0.452801166125274     
