 VARIABLES="X","Y","by"
 ZONE F=POINT, I=                    64 J=                    64
 tn=   1.00000000000000     
 nx=                    64 ny=                    64
 L1-rh=  3.755818393251792E-005   order=   14.7005131690301     
 Linf-rh=  4.673757173538351E-004   order=   11.0631295991370     
 L2-rh=  7.570162797408971E-005   order=   13.6893161485337     
 VARIABLES="X","Y","by"
 ZONE F=POINT, I=                    64 J=                    64
 tn=   2.00000000000000     
 nx=                    64 ny=                    64
 L1-rh=  5.290379389041089E-005   order= -0.494243880649428     
 Linf-rh=  5.798359620503984E-004   order= -0.311062033260801     
 L2-rh=  9.989055407858138E-005   order= -0.400023933412915     
 VARIABLES="X","Y","by"
 ZONE F=POINT, I=                    64 J=                    64
 tn=   3.00000000000000     
 nx=                    64 ny=                    64
 L1-rh=  5.677672791234811E-005   order= -0.101928521747787     
 Linf-rh=  6.149506305640207E-004   order= -8.482577905596969E-002
 L2-rh=  1.086822132950523E-004   order= -0.121695686785666     
 VARIABLES="X","Y","by"
 ZONE F=POINT, I=                    64 J=                    64
 tn=   4.00000000000000     
 nx=                    64 ny=                    64
 L1-rh=  5.199615176206699E-005   order=  0.126894854535214     
 Linf-rh=  6.312060658048846E-004   order= -3.764047679288612E-002
 L2-rh=  1.054231486467057E-004   order=  4.392416478028291E-002
 VARIABLES="X","Y","by"
 ZONE F=POINT, I=                    64 J=                    64
 tn=   5.00000000000000     
 nx=                    64 ny=                    64
 L1-rh=  3.816117110600572E-005   order=  0.446299407216086     
 Linf-rh=  5.823009835356219E-004   order=  0.116346013962911     
 L2-rh=  7.849314091479793E-005   order=  0.425553191018449     
 VARIABLES="X","Y","by"
 ZONE F=POINT, I=                    64 J=                    64
 tn=   6.00000000000000     
 nx=                    64 ny=                    64
 L1-rh=  2.744203546707558E-005   order=  0.475717951081734     
 Linf-rh=  3.535950224959443E-004   order=  0.719667089288463     
 L2-rh=  5.573692014015899E-005   order=  0.493933304784064     
 VARIABLES="X","Y","by"
 ZONE F=POINT, I=                    64 J=                    64
 tn=   7.00000000000000     
 nx=                    64 ny=                    64
 L1-rh=  1.890655650709883E-005   order=  0.537500868992151     
 Linf-rh=  2.024475668439632E-004   order=  0.804549662467256     
 L2-rh=  3.680709095831803E-005   order=  0.598649554429158     
 VARIABLES="X","Y","by"
 ZONE F=POINT, I=                    64 J=                    64
 tn=   8.00000000000000     
 nx=                    64 ny=                    64
 L1-rh=  1.314327103821211E-005   order=  0.524562254175165     
 Linf-rh=  1.238089718908390E-004   order=  0.709432439708317     
 L2-rh=  2.411425222168038E-005   order=  0.610097657991793     
 VARIABLES="X","Y","by"
 ZONE F=POINT, I=                    64 J=                    64
 tn=   9.00000000000000     
 nx=                    64 ny=                    64
 L1-rh=  9.506258541962909E-006   order=  0.467374827502211     
 Linf-rh=  7.792665292758952E-005   order=  0.667927107333431     
 L2-rh=  1.658380164483977E-005   order=  0.540111307189041     
 VARIABLES="X","Y","by"
 ZONE F=POINT, I=                    64 J=                    64
 tn=   10.0000000000000     
 nx=                    64 ny=                    64
 L1-rh=  7.182530693061127E-006   order=  0.404385386358499     
 Linf-rh=  5.385028037743344E-005   order=  0.533162995308968     
 L2-rh=  1.211648314887535E-005   order=  0.452803753561863     
