 VARIABLES="X","Y","E"
 ZONE F=POINT, I=                    32 J=                    32
