 VARIABLES="X","Y","E"
 ZONE F=POINT, I=                   128 J=                   128
