 VARIABLES="X","Y","Magnetic pressure"
 ZONE F=POINT, I=                   128 J=                   128
