 VARIABLES="X","Y","Magnetic pressure"
 ZONE F=POINT, I=                    32 J=                    32
