 VARIABLES="X","Y","p"
 ZONE F=POINT, I=                    64 J=                    64
 tn=   1.00000000000000     
 nx=                    64 ny=                    64
 L1-rh=  1.631301054128618E-005   order=   15.9036174206405     
 Linf-rh=  1.931609300064550E-004   order=   12.3379090648066     
 L2-rh=  3.261860317711057E-005   order=   14.9039454714368     
 VARIABLES="X","Y","p"
 ZONE F=POINT, I=                    64 J=                    64
 tn=   2.00000000000000     
 nx=                    64 ny=                    64
 L1-rh=  1.899566126469187E-005   order= -0.219646881248839     
 Linf-rh=  2.630575558610192E-004   order= -0.445575174777361     
 L2-rh=  4.218235062712593E-005   order= -0.370944489087629     
 VARIABLES="X","Y","p"
 ZONE F=POINT, I=                    64 J=                    64
 tn=   3.00000000000000     
 nx=                    64 ny=                    64
 L1-rh=  1.858585379056791E-005   order=  3.146497129389352E-002
 Linf-rh=  2.981632715765951E-004   order= -0.180724064621072     
 L2-rh=  4.629663320813496E-005   order= -0.134267789291187     
 VARIABLES="X","Y","p"
 ZONE F=POINT, I=                    64 J=                    64
 tn=   4.00000000000000     
 nx=                    64 ny=                    64
 L1-rh=  1.484147027616271E-005   order=  0.324570943554078     
 Linf-rh=  3.088062827036140E-004   order= -5.059955057980722E-002
 L2-rh=  4.466847909671767E-005   order=  5.165014778038880E-002
 VARIABLES="X","Y","p"
 ZONE F=POINT, I=                    64 J=                    64
 tn=   5.00000000000000     
 nx=                    64 ny=                    64
 L1-rh=  7.648222770265847E-006   order=  0.956437569684634     
 Linf-rh=  2.657652257487594E-004   order=  0.216549758277994     
 L2-rh=  2.997991531507536E-005   order=  0.575260825519278     
 VARIABLES="X","Y","p"
 ZONE F=POINT, I=                    64 J=                    64
 tn=   6.00000000000000     
 nx=                    64 ny=                    64
 L1-rh=  2.471295275241984E-006   order=   1.62985714838065     
 Linf-rh=  1.656365699068386E-004   order=  0.682131114435470     
 L2-rh=  1.143322755877582E-005   order=   1.39076357944035     
 VARIABLES="X","Y","p"
 ZONE F=POINT, I=                    64 J=                    64
 tn=   7.00000000000000     
 nx=                    64 ny=                    64
 L1-rh=  7.815979320594573E-007   order=   1.66076884165699     
 Linf-rh=  4.758493880134996E-005   order=   1.79944431123862     
 L2-rh=  3.377848099215324E-006   order=   1.75905637147813     
 VARIABLES="X","Y","p"
 ZONE F=POINT, I=                    64 J=                    64
 tn=   8.00000000000000     
 nx=                    64 ny=                    64
 L1-rh=  2.677897047891203E-007   order=   1.54532615312430     
 Linf-rh=  1.292574335955527E-005   order=   1.88025776333238     
 L2-rh=  9.208411386443283E-007   order=   1.87508025952046     
 VARIABLES="X","Y","p"
 ZONE F=POINT, I=                    64 J=                    64
 tn=   9.00000000000000     
 nx=                    64 ny=                    64
 L1-rh=  1.188917959332896E-007   order=   1.17145133103010     
 Linf-rh=  2.942173699333338E-006   order=   2.13529292462630     
 L2-rh=  2.980064099304049E-007   order=   1.62760892493105     
 VARIABLES="X","Y","p"
 ZONE F=POINT, I=                    64 J=                    64
 tn=   10.0000000000000     
 nx=                    64 ny=                    64
 L1-rh=  6.989217105329154E-008   order=  0.766446399304013     
 Linf-rh=  1.038029640687554E-006   order=   1.50303478249003     
 L2-rh=  1.222635033640936E-007   order=   1.28534955038966     
