 VARIABLES="X","Y","<greek>r<\greek>"
 ZONE F=POINT, I=                    64 J=                    64
 tn=   1.00000000000000     
 nx=                    64 ny=                    64
 L1-rh=  9.787577593217537E-006   order=   16.6406167295865     
 Linf-rh=  9.589359603923153E-005   order=   13.3482060019560     
 L2-rh=  1.918674844577658E-005   order=   15.6695302339103     
 VARIABLES="X","Y","<greek>r<\greek>"
 ZONE F=POINT, I=                    64 J=                    64
 tn=   2.00000000000000     
 nx=                    64 ny=                    64
 L1-rh=  1.132437034502489E-005   order= -0.210407091261035     
 Linf-rh=  1.254267746433335E-004   order= -0.387338973114105     
 L2-rh=  2.416375913696472E-005   order= -0.332734670526650     
 VARIABLES="X","Y","<greek>r<\greek>"
 ZONE F=POINT, I=                    64 J=                    64
 tn=   3.00000000000000     
 nx=                    64 ny=                    64
 L1-rh=  1.104443451358352E-005   order=  3.611128299840791E-002
 Linf-rh=  1.407446313406169E-004   order= -0.166234541502130     
 L2-rh=  2.630448341748876E-005   order= -0.122463806826213     
 VARIABLES="X","Y","<greek>r<\greek>"
 ZONE F=POINT, I=                    64 J=                    64
 tn=   4.00000000000000     
 nx=                    64 ny=                    64
 L1-rh=  8.790393146578500E-006   order=  0.329319957269241     
 Linf-rh=  1.467086407436202E-004   order= -5.987395215444094E-002
 L2-rh=  2.521137043914062E-005   order=  6.123417556493509E-002
 VARIABLES="X","Y","<greek>r<\greek>"
 ZONE F=POINT, I=                    64 J=                    64
 tn=   5.00000000000000     
 nx=                    64 ny=                    64
 L1-rh=  4.543196158096467E-006   order=  0.952220093854216     
 Linf-rh=  1.418198870551945E-004   order=  4.889399201107436E-002
 L2-rh=  1.764311541853587E-005   order=  0.514969208061827     
 VARIABLES="X","Y","<greek>r<\greek>"
 ZONE F=POINT, I=                    64 J=                    64
 tn=   6.00000000000000     
 nx=                    64 ny=                    64
 L1-rh=  1.474249333574301E-006   order=   1.62372705487863     
 Linf-rh=  9.813628855226408E-005   order=  0.531201236548482     
 L2-rh=  6.735904816039400E-006   order=   1.38916167707745     
 VARIABLES="X","Y","<greek>r<\greek>"
 ZONE F=POINT, I=                    64 J=                    64
 tn=   7.00000000000000     
 nx=                    64 ny=                    64
 L1-rh=  4.696765225595560E-007   order=   1.65024115662482     
 Linf-rh=  2.889021197316488E-005   order=   1.76420592141342     
 L2-rh=  2.033896998529541E-006   order=   1.72762513258851     
 VARIABLES="X","Y","<greek>r<\greek>"
 ZONE F=POINT, I=                    64 J=                    64
 tn=   8.00000000000000     
 nx=                    64 ny=                    64
 L1-rh=  1.606703139451094E-007   order=   1.54756408441797     
 Linf-rh=  7.753105253693882E-006   order=   1.89773463354167     
 L2-rh=  5.523943788404060E-007   order=   1.88047607554083     
 VARIABLES="X","Y","<greek>r<\greek>"
 ZONE F=POINT, I=                    64 J=                    64
 tn=   9.00000000000000     
 nx=                    64 ny=                    64
 L1-rh=  7.136008394088844E-008   order=   1.17091417842831     
 Linf-rh=  1.764225171396738E-006   order=   2.13573954407928     
 L2-rh=  1.788273100005567E-007   order=   1.62713156117132     
 VARIABLES="X","Y","<greek>r<\greek>"
 ZONE F=POINT, I=                    64 J=                    64
 tn=   10.0000000000000     
 nx=                    64 ny=                    64
 L1-rh=  4.195111234664515E-008   order=  0.766408247626889     
 Linf-rh=  6.230961435704785E-007   order=   1.50150801354311     
 L2-rh=  7.337828495546369E-008   order=   1.28514198715378     
