 VARIABLES="X","Y","ux"
 ZONE F=POINT, I=                    64 J=                    64
 tn=   1.00000000000000     
 nx=                    64 ny=                    64
 L1-rh=  1.630087501540537E-005   order=   15.9046910654097     
 Linf-rh=  3.111124556659794E-004   order=   11.6502762239320     
 L2-rh=  4.120401179662041E-005   order=   14.5668556633070     
 VARIABLES="X","Y","ux"
 ZONE F=POINT, I=                    64 J=                    64
 tn=   2.00000000000000     
 nx=                    64 ny=                    64
 L1-rh=  1.707325575068695E-005   order= -6.678878744596482E-002
 Linf-rh=  3.693076812394114E-004   order= -0.247387113887251     
 L2-rh=  4.607829384092231E-005   order= -0.161302487403665     
 VARIABLES="X","Y","ux"
 ZONE F=POINT, I=                    64 J=                    64
 tn=   3.00000000000000     
 nx=                    64 ny=                    64
 L1-rh=  1.590105662979758E-005   order=  0.102615560276696     
 Linf-rh=  3.986501271499576E-004   order= -0.110299859748393     
 L2-rh=  4.860543108492377E-005   order= -7.703022849744635E-002
 VARIABLES="X","Y","ux"
 ZONE F=POINT, I=                    64 J=                    64
 tn=   4.00000000000000     
 nx=                    64 ny=                    64
 L1-rh=  1.277028263331727E-005   order=  0.316332180915127     
 Linf-rh=  4.203534692060751E-004   order= -7.647985055852984E-002
 L2-rh=  4.742813478228379E-005   order=  3.537439471430116E-002
 VARIABLES="X","Y","ux"
 ZONE F=POINT, I=                    64 J=                    64
 tn=   5.00000000000000     
 nx=                    64 ny=                    64
 L1-rh=  6.069811542272998E-006   order=   1.07306682631518     
 Linf-rh=  4.119963010862648E-004   order=  2.897159489938572E-002
 L2-rh=  3.070964952316868E-005   order=  0.627051084804901     
 VARIABLES="X","Y","ux"
 ZONE F=POINT, I=                    64 J=                    64
 tn=   6.00000000000000     
 nx=                    64 ny=                    64
 L1-rh=  2.058676351462812E-006   order=   1.55993468496675     
 Linf-rh=  1.368149080957365E-004   order=   1.59040594223272     
 L2-rh=  1.046942680653173E-005   order=   1.55250958958024     
 VARIABLES="X","Y","ux"
 ZONE F=POINT, I=                    64 J=                    64
 tn=   7.00000000000000     
 nx=                    64 ny=                    64
 L1-rh=  5.971430873982905E-007   order=   1.78556846234194     
 Linf-rh=  3.093143560648891E-005   order=   2.14507974344465     
 L2-rh=  2.546910134942017E-006   order=   2.03936249629299     
 VARIABLES="X","Y","ux"
 ZONE F=POINT, I=                    64 J=                    64
 tn=   8.00000000000000     
 nx=                    64 ny=                    64
 L1-rh=  1.987707899886818E-007   order=   1.58697090766427     
 Linf-rh=  1.063784274359486E-005   order=   1.53986817887198     
 L2-rh=  7.367088382961642E-007   order=   1.78958160067190     
 VARIABLES="X","Y","ux"
 ZONE F=POINT, I=                    64 J=                    64
 tn=   9.00000000000000     
 nx=                    64 ny=                    64
 L1-rh=  8.030499444129942E-008   order=   1.30754414200075     
 Linf-rh=  2.495758244081754E-006   order=   2.09165551830780     
 L2-rh=  2.284687815732009E-007   order=   1.68909750469854     
 VARIABLES="X","Y","ux"
 ZONE F=POINT, I=                    64 J=                    64
 tn=   10.0000000000000     
 nx=                    64 ny=                    64
 L1-rh=  4.322869799165449E-008   order=  0.893500332404713     
 Linf-rh=  8.016008946393047E-007   order=   1.63852216804062     
 L2-rh=  8.440695727263676E-008   order=   1.43656322245905     
