 VARIABLES="X","Y","uy"
 ZONE F=POINT, I=                    64 J=                    64
 tn=   1.00000000000000     
 nx=                    64 ny=                    64
 L1-rh=  1.576638981906582E-005   order=   15.9527881241621     
 Linf-rh=  2.650491439779856E-004   order=   11.8814524983642     
 L2-rh=  3.862931634347552E-005   order=   14.6599443292668     
 VARIABLES="X","Y","uy"
 ZONE F=POINT, I=                    64 J=                    64
 tn=   2.00000000000000     
 nx=                    64 ny=                    64
 L1-rh=  1.675844441657142E-005   order= -8.803588846095747E-002
 Linf-rh=  3.132034055019217E-004   order= -0.240840018142365     
 L2-rh=  4.329913614345913E-005   order= -0.164642097011088     
 VARIABLES="X","Y","uy"
 ZONE F=POINT, I=                    64 J=                    64
 tn=   3.00000000000000     
 nx=                    64 ny=                    64
 L1-rh=  1.552726027752839E-005   order=  0.110084944278459     
 Linf-rh=  3.447425653346770E-004   order= -0.138419539806994     
 L2-rh=  4.582116777160284E-005   order= -8.167598461582426E-002
 VARIABLES="X","Y","uy"
 ZONE F=POINT, I=                    64 J=                    64
 tn=   4.00000000000000     
 nx=                    64 ny=                    64
 L1-rh=  1.210179402250759E-005   order=  0.359582359724289     
 Linf-rh=  3.583686021882415E-004   order= -5.592480470177909E-002
 L2-rh=  4.299362538889274E-005   order=  9.189145771670738E-002
 VARIABLES="X","Y","uy"
 ZONE F=POINT, I=                    64 J=                    64
 tn=   5.00000000000000     
 nx=                    64 ny=                    64
 L1-rh=  5.269164151353641E-006   order=   1.19957490463375     
 Linf-rh=  3.412459422825059E-004   order=  7.063235262796895E-002
 L2-rh=  2.602037747599854E-005   order=  0.724480877785430     
 VARIABLES="X","Y","uy"
 ZONE F=POINT, I=                    64 J=                    64
 tn=   6.00000000000000     
 nx=                    64 ny=                    64
 L1-rh=  1.121543583611384E-006   order=   2.23208843979354     
 Linf-rh=  7.835187786227327E-005   order=   2.12277213385967     
 L2-rh=  5.845567745301021E-006   order=   2.15422683421348     
 VARIABLES="X","Y","uy"
 ZONE F=POINT, I=                    64 J=                    64
 tn=   7.00000000000000     
 nx=                    64 ny=                    64
 L1-rh=  1.329690288876921E-007   order=   3.07632352738685     
 Linf-rh=  5.820499310455526E-006   order=   3.75075302735427     
 L2-rh=  4.990647511302846E-007   order=   3.55004423675611     
 VARIABLES="X","Y","uy"
 ZONE F=POINT, I=                    64 J=                    64
 tn=   8.00000000000000     
 nx=                    64 ny=                    64
 L1-rh=  5.521538543094857E-008   order=   1.26794802637119     
 Linf-rh=  9.540752535666297E-007   order=   2.60896795003420     
 L2-rh=  1.172186056398858E-007   order=   2.09002542895750     
 VARIABLES="X","Y","uy"
 ZONE F=POINT, I=                    64 J=                    64
 tn=   9.00000000000000     
 nx=                    64 ny=                    64
 L1-rh=  3.649947321666988E-008   order=  0.597194678948087     
 Linf-rh=  5.930201227617652E-007   order=  0.686022004512053     
 L2-rh=  6.071937783066815E-008   order=  0.948972667970872     
 VARIABLES="X","Y","uy"
 ZONE F=POINT, I=                    64 J=                    64
 tn=   10.0000000000000     
 nx=                    64 ny=                    64
 L1-rh=  2.906484295259365E-008   order=  0.328600529051424     
 Linf-rh=  1.626239888424642E-007   order=   1.86654097347623     
 L2-rh=  4.468362210212737E-008   order=  0.442410871096786     
